Ethanol first optimisation                                              
SP        RMP2-FC                                                     Aug-CC-pVTZ         
Number of atoms                            I                9
Info1-9                                    I   N=           9
          12           7           0           0           0         110
           1           2           1
Charge                                     I                0
Multiplicity                               I                1
Number of electrons                        I               26
Number of alpha electrons                  I               13
Number of beta electrons                   I               13
Number of basis functions                  I              276
Number of independent functions            I              276
Number of point charges in /Mol/           I                0
Number of translation vectors              I                0
Atomic numbers                             I   N=           9
           6           6           8           1           1           1
           1           1           1
Nuclear charges                            R   N=           9
  6.00000000E+00  6.00000000E+00  8.00000000E+00  1.00000000E+00  1.00000000E+00
  1.00000000E+00  1.00000000E+00  1.00000000E+00  1.00000000E+00
Current cartesian coordinates              R   N=          27
 -2.28060441E+00 -4.52395961E-01 -4.36427914E-02  1.60772764E-01  1.06160043E+00
  8.82214427E-02  2.33257275E+00 -4.94359459E-01 -1.97308783E-01 -3.93334605E+00
  7.85913453E-01  5.81595293E-02 -2.39160413E+00 -1.79338288E+00  1.52890929E+00
 -2.35069538E+00 -1.52092783E+00 -1.80864513E+00  2.41447678E-01  2.13419343E+00
  1.86439248E+00  2.46367682E-01  2.41831937E+00 -1.46435763E+00  2.24623813E+00
 -1.72446672E+00  1.13253983E+00
Force Field                                I                0
Int Atom Types                             I   N=           9
           0           0           0           0           0           0
           0           0           0
MM charges                                 R   N=           9
  0.00000000E+00  0.00000000E+00  0.00000000E+00  0.00000000E+00  0.00000000E+00
  0.00000000E+00  0.00000000E+00  0.00000000E+00  0.00000000E+00
Integer atomic weights                     I   N=           9
          12          12          16           1           1           1
           1           1           1
Real atomic weights                        R   N=           9
  1.20000000E+01  1.20000000E+01  1.59949146E+01  1.00782504E+00  1.00782504E+00
  1.00782504E+00  1.00782504E+00  1.00782504E+00  1.00782504E+00
Atom fragment info                         I   N=           9
           0           0           0           0           0           0
           0           0           0
Atom residue num                           I   N=           9
           0           0           0           0           0           0
           0           0           0
Nuclear spins                              I   N=           9
           0           0           0           1           1           1
           1           1           1
Nuclear ZEff                               R   N=           9
 -3.60000000E+00 -3.60000000E+00 -5.60000000E+00 -1.00000000E+00 -1.00000000E+00
 -1.00000000E+00 -1.00000000E+00 -1.00000000E+00 -1.00000000E+00
Nuclear ZNuc                               R   N=           9
  6.00000000E+00  6.00000000E+00  8.00000000E+00  1.00000000E+00  1.00000000E+00
  1.00000000E+00  1.00000000E+00  1.00000000E+00  1.00000000E+00
Nuclear QMom                               R   N=           9
  0.00000000E+00  0.00000000E+00  0.00000000E+00  0.00000000E+00  0.00000000E+00
  0.00000000E+00  0.00000000E+00  0.00000000E+00  0.00000000E+00
Nuclear GFac                               R   N=           9
  0.00000000E+00  0.00000000E+00  0.00000000E+00  2.79284600E+00  2.79284600E+00
  2.79284600E+00  2.79284600E+00  2.79284600E+00  2.79284600E+00
MicOpt                                     I   N=           9
          -1          -1          -1          -1          -1          -1
          -1          -1          -1
Number of contracted shells                I               96
Number of primitive shells                 I              147
Pure/Cartesian d shells                    I                0
Pure/Cartesian f shells                    I                0
Highest angular momentum                   I                3
Largest degree of contraction              I                7
Shell types                                I   N=          96
           0           0           0           0           0           1
           1           1           1          -2          -2          -2
          -3          -3           0           0           0           0
           0           1           1           1           1          -2
          -2          -2          -3          -3           0           0
           0           0           0           1           1           1
           1          -2          -2          -2          -3          -3
           0           0           0           0           1           1
           1          -2          -2           0           0           0
           0           1           1           1          -2          -2
           0           0           0           0           1           1
           1          -2          -2           0           0           0
           0           1           1           1          -2          -2
           0           0           0           0           1           1
           1          -2          -2           0           0           0
           0           1           1           1          -2          -2
Number of primitives per shell             I   N=          96
           7           6           1           1           1           3
           1           1           1           1           1           1
           1           1           7           6           1           1
           1           3           1           1           1           1
           1           1           1           1           7           6
           1           1           1           3           1           1
           1           1           1           1           1           1
           3           1           1           1           1           1
           1           1           1           3           1           1
           1           1           1           1           1           1
           3           1           1           1           1           1
           1           1           1           3           1           1
           1           1           1           1           1           1
           3           1           1           1           1           1
           1           1           1           3           1           1
           1           1           1           1           1           1
Shell to atom map                          I   N=          96
           1           1           1           1           1           1
           1           1           1           1           1           1
           1           1           2           2           2           2
           2           2           2           2           2           2
           2           2           2           2           3           3
           3           3           3           3           3           3
           3           3           3           3           3           3
           4           4           4           4           4           4
           4           4           4           5           5           5
           5           5           5           5           5           5
           6           6           6           6           6           6
           6           6           6           7           7           7
           7           7           7           7           7           7
           8           8           8           8           8           8
           8           8           8           9           9           9
           9           9           9           9           9           9
Primitive exponents                        R   N=         147
  8.23600000E+03  1.23500000E+03  2.80800000E+02  7.92700000E+01  2.55900000E+01
  8.99700000E+00  3.31900000E+00  2.80800000E+02  7.92700000E+01  2.55900000E+01
  8.99700000E+00  3.31900000E+00  3.64300000E-01  9.05900000E-01  1.28500000E-01
  4.40200000E-02  1.87100000E+01  4.13300000E+00  1.20000000E+00  3.82700000E-01
  1.20900000E-01  3.56900000E-02  1.09700000E+00  3.18000000E-01  1.00000000E-01
  7.61000000E-01  2.68000000E-01  8.23600000E+03  1.23500000E+03  2.80800000E+02
  7.92700000E+01  2.55900000E+01  8.99700000E+00  3.31900000E+00  2.80800000E+02
  7.92700000E+01  2.55900000E+01  8.99700000E+00  3.31900000E+00  3.64300000E-01
  9.05900000E-01  1.28500000E-01  4.40200000E-02  1.87100000E+01  4.13300000E+00
  1.20000000E+00  3.82700000E-01  1.20900000E-01  3.56900000E-02  1.09700000E+00
  3.18000000E-01  1.00000000E-01  7.61000000E-01  2.68000000E-01  1.53300000E+04
  2.29900000E+03  5.22400000E+02  1.47300000E+02  4.75500000E+01  1.67600000E+01
  6.20700000E+00  5.22400000E+02  1.47300000E+02  4.75500000E+01  1.67600000E+01
  6.20700000E+00  6.88200000E-01  1.75200000E+00  2.38400000E-01  7.37600000E-02
  3.44600000E+01  7.74900000E+00  2.28000000E+00  7.15600000E-01  2.14000000E-01
  5.97400000E-02  2.31400000E+00  6.45000000E-01  2.14000000E-01  1.42800000E+00
  5.00000000E-01  3.38700000E+01  5.09500000E+00  1.15900000E+00  3.25800000E-01
  1.02700000E-01  2.52600000E-02  1.40700000E+00  3.88000000E-01  1.02000000E-01
  1.05700000E+00  2.47000000E-01  3.38700000E+01  5.09500000E+00  1.15900000E+00
  3.25800000E-01  1.02700000E-01  2.52600000E-02  1.40700000E+00  3.88000000E-01
  1.02000000E-01  1.05700000E+00  2.47000000E-01  3.38700000E+01  5.09500000E+00
  1.15900000E+00  3.25800000E-01  1.02700000E-01  2.52600000E-02  1.40700000E+00
  3.88000000E-01  1.02000000E-01  1.05700000E+00  2.47000000E-01  3.38700000E+01
  5.09500000E+00  1.15900000E+00  3.25800000E-01  1.02700000E-01  2.52600000E-02
  1.40700000E+00  3.88000000E-01  1.02000000E-01  1.05700000E+00  2.47000000E-01
  3.38700000E+01  5.09500000E+00  1.15900000E+00  3.25800000E-01  1.02700000E-01
  2.52600000E-02  1.40700000E+00  3.88000000E-01  1.02000000E-01  1.05700000E+00
  2.47000000E-01  3.38700000E+01  5.09500000E+00  1.15900000E+00  3.25800000E-01
  1.02700000E-01  2.52600000E-02  1.40700000E+00  3.88000000E-01  1.02000000E-01
  1.05700000E+00  2.47000000E-01
Contraction coefficients                   R   N=         147
  5.41978320E-04  4.19287382E-03  2.15221621E-02  8.35343220E-02  2.39582846E-01
  4.42852842E-01  3.51799562E-01 -5.94922494E-05 -1.14815831E-03 -1.00191374E-02
 -6.12194923E-02 -1.73269854E-01  1.07291519E+00  1.00000000E+00  1.00000000E+00
  1.00000000E+00  3.94263872E-02  2.44088985E-01  8.15492009E-01  1.00000000E+00
  1.00000000E+00  1.00000000E+00  1.00000000E+00  1.00000000E+00  1.00000000E+00
  1.00000000E+00  1.00000000E+00  5.41978320E-04  4.19287382E-03  2.15221621E-02
  8.35343220E-02  2.39582846E-01  4.42852842E-01  3.51799562E-01 -5.94922494E-05
 -1.14815831E-03 -1.00191374E-02 -6.12194923E-02 -1.73269854E-01  1.07291519E+00
  1.00000000E+00  1.00000000E+00  1.00000000E+00  3.94263872E-02  2.44088985E-01
  8.15492009E-01  1.00000000E+00  1.00000000E+00  1.00000000E+00  1.00000000E+00
  1.00000000E+00  1.00000000E+00  1.00000000E+00  1.00000000E+00  5.19808943E-04
  4.02025621E-03  2.07128267E-02  8.10105536E-02  2.35962985E-01  4.42653446E-01
  3.57064423E-01 -4.42115008E-05 -1.22591041E-03 -1.05517725E-02 -6.74452633E-02
 -1.71198607E-01  1.07329856E+00  1.00000000E+00  1.00000000E+00  1.00000000E+00
  4.11634896E-02  2.57762836E-01  8.02419274E-01  1.00000000E+00  1.00000000E+00
  1.00000000E+00  1.00000000E+00  1.00000000E+00  1.00000000E+00  1.00000000E+00
  1.00000000E+00  2.54948632E-02  1.90362766E-01  8.52162022E-01  1.00000000E+00
  1.00000000E+00  1.00000000E+00  1.00000000E+00  1.00000000E+00  1.00000000E+00
  1.00000000E+00  1.00000000E+00  2.54948632E-02  1.90362766E-01  8.52162022E-01
  1.00000000E+00  1.00000000E+00  1.00000000E+00  1.00000000E+00  1.00000000E+00
  1.00000000E+00  1.00000000E+00  1.00000000E+00  2.54948632E-02  1.90362766E-01
  8.52162022E-01  1.00000000E+00  1.00000000E+00  1.00000000E+00  1.00000000E+00
  1.00000000E+00  1.00000000E+00  1.00000000E+00  1.00000000E+00  2.54948632E-02
  1.90362766E-01  8.52162022E-01  1.00000000E+00  1.00000000E+00  1.00000000E+00
  1.00000000E+00  1.00000000E+00  1.00000000E+00  1.00000000E+00  1.00000000E+00
  2.54948632E-02  1.90362766E-01  8.52162022E-01  1.00000000E+00  1.00000000E+00
  1.00000000E+00  1.00000000E+00  1.00000000E+00  1.00000000E+00  1.00000000E+00
  1.00000000E+00  2.54948632E-02  1.90362766E-01  8.52162022E-01  1.00000000E+00
  1.00000000E+00  1.00000000E+00  1.00000000E+00  1.00000000E+00  1.00000000E+00
  1.00000000E+00  1.00000000E+00
Coordinates of each shell                  R   N=         288
 -2.28060441E+00 -4.52395961E-01 -4.36427914E-02 -2.28060441E+00 -4.52395961E-01
 -4.36427914E-02 -2.28060441E+00 -4.52395961E-01 -4.36427914E-02 -2.28060441E+00
 -4.52395961E-01 -4.36427914E-02 -2.28060441E+00 -4.52395961E-01 -4.36427914E-02
 -2.28060441E+00 -4.52395961E-01 -4.36427914E-02 -2.28060441E+00 -4.52395961E-01
 -4.36427914E-02 -2.28060441E+00 -4.52395961E-01 -4.36427914E-02 -2.28060441E+00
 -4.52395961E-01 -4.36427914E-02 -2.28060441E+00 -4.52395961E-01 -4.36427914E-02
 -2.28060441E+00 -4.52395961E-01 -4.36427914E-02 -2.28060441E+00 -4.52395961E-01
 -4.36427914E-02 -2.28060441E+00 -4.52395961E-01 -4.36427914E-02 -2.28060441E+00
 -4.52395961E-01 -4.36427914E-02  1.60772764E-01  1.06160043E+00  8.82214427E-02
  1.60772764E-01  1.06160043E+00  8.82214427E-02  1.60772764E-01  1.06160043E+00
  8.82214427E-02  1.60772764E-01  1.06160043E+00  8.82214427E-02  1.60772764E-01
  1.06160043E+00  8.82214427E-02  1.60772764E-01  1.06160043E+00  8.82214427E-02
  1.60772764E-01  1.06160043E+00  8.82214427E-02  1.60772764E-01  1.06160043E+00
  8.82214427E-02  1.60772764E-01  1.06160043E+00  8.82214427E-02  1.60772764E-01
  1.06160043E+00  8.82214427E-02  1.60772764E-01  1.06160043E+00  8.82214427E-02
  1.60772764E-01  1.06160043E+00  8.82214427E-02  1.60772764E-01  1.06160043E+00
  8.82214427E-02  1.60772764E-01  1.06160043E+00  8.82214427E-02  2.33257275E+00
 -4.94359459E-01 -1.97308783E-01  2.33257275E+00 -4.94359459E-01 -1.97308783E-01
  2.33257275E+00 -4.94359459E-01 -1.97308783E-01  2.33257275E+00 -4.94359459E-01
 -1.97308783E-01  2.33257275E+00 -4.94359459E-01 -1.97308783E-01  2.33257275E+00
 -4.94359459E-01 -1.97308783E-01  2.33257275E+00 -4.94359459E-01 -1.97308783E-01
  2.33257275E+00 -4.94359459E-01 -1.97308783E-01  2.33257275E+00 -4.94359459E-01
 -1.97308783E-01  2.33257275E+00 -4.94359459E-01 -1.97308783E-01  2.33257275E+00
 -4.94359459E-01 -1.97308783E-01  2.33257275E+00 -4.94359459E-01 -1.97308783E-01
  2.33257275E+00 -4.94359459E-01 -1.97308783E-01  2.33257275E+00 -4.94359459E-01
 -1.97308783E-01 -3.93334605E+00  7.85913453E-01  5.81595293E-02 -3.93334605E+00
  7.85913453E-01  5.81595293E-02 -3.93334605E+00  7.85913453E-01  5.81595293E-02
 -3.93334605E+00  7.85913453E-01  5.81595293E-02 -3.93334605E+00  7.85913453E-01
  5.81595293E-02 -3.93334605E+00  7.85913453E-01  5.81595293E-02 -3.93334605E+00
  7.85913453E-01  5.81595293E-02 -3.93334605E+00  7.85913453E-01  5.81595293E-02
 -3.93334605E+00  7.85913453E-01  5.81595293E-02 -2.39160413E+00 -1.79338288E+00
  1.52890929E+00 -2.39160413E+00 -1.79338288E+00  1.52890929E+00 -2.39160413E+00
 -1.79338288E+00  1.52890929E+00 -2.39160413E+00 -1.79338288E+00  1.52890929E+00
 -2.39160413E+00 -1.79338288E+00  1.52890929E+00 -2.39160413E+00 -1.79338288E+00
  1.52890929E+00 -2.39160413E+00 -1.79338288E+00  1.52890929E+00 -2.39160413E+00
 -1.79338288E+00  1.52890929E+00 -2.39160413E+00 -1.79338288E+00  1.52890929E+00
 -2.35069538E+00 -1.52092783E+00 -1.80864513E+00 -2.35069538E+00 -1.52092783E+00
 -1.80864513E+00 -2.35069538E+00 -1.52092783E+00 -1.80864513E+00 -2.35069538E+00
 -1.52092783E+00 -1.80864513E+00 -2.35069538E+00 -1.52092783E+00 -1.80864513E+00
 -2.35069538E+00 -1.52092783E+00 -1.80864513E+00 -2.35069538E+00 -1.52092783E+00
 -1.80864513E+00 -2.35069538E+00 -1.52092783E+00 -1.80864513E+00 -2.35069538E+00
 -1.52092783E+00 -1.80864513E+00  2.41447678E-01  2.13419343E+00  1.86439248E+00
  2.41447678E-01  2.13419343E+00  1.86439248E+00  2.41447678E-01  2.13419343E+00
  1.86439248E+00  2.41447678E-01  2.13419343E+00  1.86439248E+00  2.41447678E-01
  2.13419343E+00  1.86439248E+00  2.41447678E-01  2.13419343E+00  1.86439248E+00
  2.41447678E-01  2.13419343E+00  1.86439248E+00  2.41447678E-01  2.13419343E+00
  1.86439248E+00  2.41447678E-01  2.13419343E+00  1.86439248E+00  2.46367682E-01
  2.41831937E+00 -1.46435763E+00  2.46367682E-01  2.41831937E+00 -1.46435763E+00
  2.46367682E-01  2.41831937E+00 -1.46435763E+00  2.46367682E-01  2.41831937E+00
 -1.46435763E+00  2.46367682E-01  2.41831937E+00 -1.46435763E+00  2.46367682E-01
  2.41831937E+00 -1.46435763E+00  2.46367682E-01  2.41831937E+00 -1.46435763E+00
  2.46367682E-01  2.41831937E+00 -1.46435763E+00  2.46367682E-01  2.41831937E+00
 -1.46435763E+00  2.24623813E+00 -1.72446672E+00  1.13253983E+00  2.24623813E+00
 -1.72446672E+00  1.13253983E+00  2.24623813E+00 -1.72446672E+00  1.13253983E+00
  2.24623813E+00 -1.72446672E+00  1.13253983E+00  2.24623813E+00 -1.72446672E+00
  1.13253983E+00  2.24623813E+00 -1.72446672E+00  1.13253983E+00  2.24623813E+00
 -1.72446672E+00  1.13253983E+00  2.24623813E+00 -1.72446672E+00  1.13253983E+00
  2.24623813E+00 -1.72446672E+00  1.13253983E+00
Constraint Structure                       R   N=          27
 -2.28060441E+00 -4.52395961E-01 -4.36427914E-02  1.60772764E-01  1.06160043E+00
  8.82214427E-02  2.33257275E+00 -4.94359459E-01 -1.97308783E-01 -3.93334605E+00
  7.85913453E-01  5.81595293E-02 -2.39160413E+00 -1.79338288E+00  1.52890929E+00
 -2.35069538E+00 -1.52092783E+00 -1.80864513E+00  2.41447678E-01  2.13419343E+00
  1.86439248E+00  2.46367682E-01  2.41831937E+00 -1.46435763E+00  2.24623813E+00
 -1.72446672E+00  1.13253983E+00
Num ILSW                                   I              100
ILSW                                       I   N=         100
           0           0           0           0           2           0
           0           0           0           0           0  1342177280
           0           0           0           0           0           0
           0           0           1           0           0           0
           1           0           0           0           0           0
           0           0      100000           0          -1           0
           0           0           0           0           0           0
           0           0           0           1           0           0
           0           0           1           0           0           0
           0           0           4          41           0           0
           0           0           0           0           0           0
           0           0           0           0           0           0
           0           0           0           0           0           0
           0           0           0           0           0           0
           0           0           0           0           0           0
           0           0           0           0           0           0
           0           0           0           0
Num RLSW                                   I               41
RLSW                                       R   N=          41
  1.00000000E+00  1.00000000E+00  1.00000000E+00  1.00000000E+00  1.00000000E+00
  0.00000000E+00  0.00000000E+00  1.00000000E+00  0.00000000E+00  0.00000000E+00
  0.00000000E+00  0.00000000E+00  1.00000000E+00  0.00000000E+00  0.00000000E+00
  0.00000000E+00  0.00000000E+00  1.00000000E+00  0.00000000E+00  0.00000000E+00
  0.00000000E+00  0.00000000E+00  1.00000000E+00  0.00000000E+00  0.00000000E+00
  0.00000000E+00  0.00000000E+00  1.00000000E+00  0.00000000E+00  0.00000000E+00
  0.00000000E+00  0.00000000E+00  1.00000000E+00  0.00000000E+00  0.00000000E+00
  0.00000000E+00  0.00000000E+00  0.00000000E+00  1.00000000E+00  1.00000000E+00
  0.00000000E+00
MxBond                                     I                4
NBond                                      I   N=           9
           4           4           2           1           1           1
           1           1           1
IBond                                      I   N=          36
           2           4           5           6           1           3
           7           8           2           9           0           0
           1           0           0           0           1           0
           0           0           1           0           0           0
           2           0           0           0           2           0
           0           0           3           0           0           0
RBond                                      R   N=          36
  1.00000000E+00  1.00000000E+00  1.00000000E+00  1.00000000E+00  1.00000000E+00
  1.00000000E+00  1.00000000E+00  1.00000000E+00  1.00000000E+00  1.00000000E+00
  0.00000000E+00  0.00000000E+00  1.00000000E+00  0.00000000E+00  0.00000000E+00
  0.00000000E+00  1.00000000E+00  0.00000000E+00  0.00000000E+00  0.00000000E+00
  1.00000000E+00  0.00000000E+00  0.00000000E+00  0.00000000E+00  1.00000000E+00
  0.00000000E+00  0.00000000E+00  0.00000000E+00  1.00000000E+00  0.00000000E+00
  0.00000000E+00  0.00000000E+00  1.00000000E+00  0.00000000E+00  0.00000000E+00
  0.00000000E+00
Virial Ratio                               R      2.001462674014980E+00
SCF Energy                                 R     -1.541445826496354E+02
MP2 Energy                                 R     -1.547578565465895E+02
Total Energy                               R     -1.547578565465895E+02
Post-SCF wavefunction norm                 R      1.081225370991645E+00
RMS Density                                R      5.556925741136816E-09
External E-field                           R   N=          35
  0.00000000E+00  0.00000000E+00  0.00000000E+00  0.00000000E+00  0.00000000E+00
  0.00000000E+00  0.00000000E+00  0.00000000E+00  0.00000000E+00  0.00000000E+00
  0.00000000E+00  0.00000000E+00  0.00000000E+00  0.00000000E+00  0.00000000E+00
  0.00000000E+00  0.00000000E+00  0.00000000E+00  0.00000000E+00  0.00000000E+00
  0.00000000E+00  0.00000000E+00  0.00000000E+00  0.00000000E+00  0.00000000E+00
  0.00000000E+00  0.00000000E+00  0.00000000E+00  0.00000000E+00  0.00000000E+00
  0.00000000E+00  0.00000000E+00  0.00000000E+00  0.00000000E+00  0.00000000E+00
IOpCl                                      I                0
IROHF                                      I                0
Alpha Orbital Energies                     R   N=         276
 -2.05564075E+01 -1.12753787E+01 -1.12204403E+01 -1.35960786E+00 -1.01175802E+00
 -8.47467327E-01 -6.86598914E-01 -6.22286046E-01 -6.09243790E-01 -5.44072299E-01
 -5.26661824E-01 -4.83990921E-01 -4.43681135E-01  2.93004017E-02  3.90425158E-02
  4.15787531E-02  4.54153328E-02  6.48775060E-02  6.55286940E-02  9.99775817E-02
  1.05165231E-01  1.18318331E-01  1.26853956E-01  1.33303925E-01  1.38484647E-01
  1.44856268E-01  1.77095354E-01  1.90260307E-01  1.94277174E-01  2.15525072E-01
  2.25835698E-01  2.36469873E-01  2.42456158E-01  2.63960464E-01  2.70782427E-01
  2.86475210E-01  2.94866896E-01  3.04533892E-01  3.29409131E-01  3.39491595E-01
  3.48238064E-01  3.55490172E-01  3.62669539E-01  3.74089612E-01  3.76516249E-01
  3.88597660E-01  3.89671779E-01  3.98532215E-01  4.18034530E-01  4.30292029E-01
  4.34135098E-01  4.37739617E-01  4.41813315E-01  4.62088931E-01  4.67059205E-01
  4.72506922E-01  4.82587874E-01  4.90738655E-01  4.98968330E-01  5.09720343E-01
  5.20039123E-01  5.28167888E-01  5.36003426E-01  5.55870617E-01  5.69135135E-01
  5.84729700E-01  6.20160168E-01  6.98020595E-01  7.15357241E-01  7.42818501E-01
  7.66174994E-01  7.76809418E-01  7.91301836E-01  8.04971024E-01  8.09745564E-01
  8.28072637E-01  8.40623308E-01  8.45537347E-01  8.55290301E-01  8.74904068E-01
  8.81540693E-01  9.03548396E-01  9.20272327E-01  9.25906732E-01  9.46116541E-01
  9.58115804E-01  9.62622084E-01  9.71096171E-01  9.87117851E-01  1.00512508E+00
  1.01674362E+00  1.02888469E+00  1.03143020E+00  1.04693069E+00  1.05470040E+00
  1.07915132E+00  1.10078248E+00  1.10686153E+00  1.11821097E+00  1.12886730E+00
  1.13774956E+00  1.14876300E+00  1.16508674E+00  1.16872091E+00  1.18960320E+00
  1.20643632E+00  1.23523664E+00  1.24685138E+00  1.25536837E+00  1.26579840E+00
  1.28268686E+00  1.32395602E+00  1.35290221E+00  1.36481199E+00  1.37477662E+00
  1.41133541E+00  1.41661299E+00  1.43400855E+00  1.44441174E+00  1.48887346E+00
  1.49454729E+00  1.53748802E+00  1.57889847E+00  1.58780672E+00  1.60673881E+00
  1.62648039E+00  1.64475594E+00  1.66337829E+00  1.66913497E+00  1.68107007E+00
  1.69288227E+00  1.71087877E+00  1.72417724E+00  1.73292416E+00  1.75167291E+00
  1.79129238E+00  1.80550781E+00  1.82276470E+00  1.83962208E+00  1.86995269E+00
  1.88595177E+00  1.91329483E+00  1.93101336E+00  1.97215177E+00  1.99529449E+00
  2.00269305E+00  2.04770893E+00  2.09110406E+00  2.11357023E+00  2.12544929E+00
  2.18043416E+00  2.20503032E+00  2.22867120E+00  2.25108360E+00  2.27488175E+00
  2.29476377E+00  2.30739655E+00  2.38824908E+00  2.39100661E+00  2.45512566E+00
  2.54911464E+00  2.57587148E+00  2.62205738E+00  2.63521149E+00  2.69629994E+00
  2.75157800E+00  2.83959645E+00  2.84733133E+00  2.89485968E+00  2.94731484E+00
  2.97110248E+00  3.04248951E+00  3.06949587E+00  3.14918614E+00  3.20254074E+00
  3.30013104E+00  3.39991823E+00  3.40259548E+00  3.43299573E+00  3.46127424E+00
  3.52893132E+00  3.59364847E+00  3.60613455E+00  3.62658325E+00  3.64888957E+00
  3.65812947E+00  3.72142789E+00  3.73299300E+00  3.74219938E+00  3.75394526E+00
  3.78034665E+00  3.81724778E+00  3.85452354E+00  3.90569528E+00  3.93128829E+00
  3.94798264E+00  3.95197684E+00  3.98698982E+00  4.00508902E+00  4.04653887E+00
  4.08548373E+00  4.11192481E+00  4.13451994E+00  4.15615405E+00  4.17740808E+00
  4.19007387E+00  4.22922673E+00  4.29456851E+00  4.32627715E+00  4.34150551E+00
  4.40009717E+00  4.43440995E+00  4.49998102E+00  4.54237377E+00  4.54254334E+00
  4.55611009E+00  4.62001277E+00  4.66804785E+00  4.67607495E+00  4.71409960E+00
  4.76637592E+00  4.81183051E+00  4.81977850E+00  4.85459145E+00  4.87400362E+00
  4.91697437E+00  4.93072130E+00  4.94670431E+00  4.99155811E+00  5.03545108E+00
  5.06842904E+00  5.11620356E+00  5.13751119E+00  5.16111874E+00  5.18161226E+00
  5.23286419E+00  5.32889544E+00  5.34264568E+00  5.37992273E+00  5.44039892E+00
  5.45287698E+00  5.51092699E+00  5.52598884E+00  5.57311212E+00  5.61391078E+00
  5.62848512E+00  5.70439203E+00  5.75202783E+00  5.82777943E+00  5.97480022E+00
  5.99973842E+00  6.04462611E+00  6.13887004E+00  6.18099766E+00  6.21202361E+00
  6.21765295E+00  6.34354861E+00  6.63441080E+00  6.67227135E+00  6.74079480E+00
  6.81640911E+00  6.93819093E+00  6.95137949E+00  7.10399190E+00  7.32060931E+00
  7.33921834E+00  7.43038652E+00  7.50415843E+00  7.61920517E+00  7.79641656E+00
  7.88367618E+00  8.18287851E+00  8.54437747E+00  1.59359275E+01  1.74472889E+01
  1.81805885E+01
Alpha MO coefficients                      R   N=       76176
  1.57868334E-05  7.92773593E-05  1.97119120E-05 -3.13179270E-05 -1.45858171E-04
 -3.15224096E-05 -6.45310024E-06 -2.60902493E-06  6.29573243E-04  5.36733792E-04
  7.48208865E-05  5.25713775E-04  1.87571764E-04 -2.00433276E-04 -2.00030951E-06
 -1.32827851E-04 -1.54469290E-04 -2.15673925E-05 -9.14004830E-06  6.87868898E-06
  5.54846320E-06  1.59173062E-05 -6.21804344E-04  1.07401341E-04 -2.37508736E-05
  1.02071253E-03 -1.35648372E-04 -5.26617489E-04  3.13602641E-05  2.62155141E-04
  4.12243983E-04 -3.85091591E-04  8.57454959E-06 -6.10847435E-06  4.19757207E-05
  3.33025586E-06 -3.51494997E-06  2.76703898E-05 -6.49701177E-06  1.31175699E-05
 -1.22490443E-04  1.09812868E-04  1.97166850E-04 -1.69762741E-04  1.94976172E-04
  2.91494288E-04  8.54161098E-05  6.87381760E-04 -2.12879043E-04 -6.03655384E-03
  1.04192260E-03 -1.02442475E-04  8.24142851E-05  2.00719104E-05  1.61240199E-03
 -1.31642693E-03 -3.82164215E-04  1.82403990E-05 -5.56766848E-04  6.92340913E-04
 -3.54653309E-05 -2.35547278E-04  2.07857163E-04 -1.18153758E-04 -4.96837905E-05
  3.33088279E-05  6.20843175E-05 -1.58551492E-04 -1.38116377E-03 -3.29859054E-04
  1.79129891E-04  8.33216604E-04 -2.25912832E-03  5.69494902E-04  5.88177396E-04
 -2.27006560E-04  2.07254468E-04  3.15607070E-05  4.84778479E-05 -1.99254027E-04
  7.01270140E-05 -3.13140970E-05  7.23414674E-05 -6.55060818E-05 -2.61919643E-04
 -1.13131820E-04 -8.05998909E-04 -5.81826935E-04  9.12484148E-05  7.07849898E-05
 -6.73080214E-04 -1.91403315E-04  9.76643434E-01 -9.29619604E-03  4.37514603E-02
  9.57236504E-05 -1.79857269E-03 -1.35732681E-03 -1.26168468E-04  1.30693323E-03
  1.62327739E-03 -2.92368761E-04 -1.05638951E-03  3.46759296E-04  4.97563442E-04
 -9.34987924E-04  1.61501945E-04  5.82324541E-06 -1.94561014E-04  1.11688597E-05
 -2.35798071E-06 -6.66461386E-05 -2.38343791E-05 -2.08858162E-05  2.41559259E-04
  1.24238417E-04  3.68514420E-04 -1.13411455E-05  6.82341275E-04 -2.57009365E-06
 -1.92299934E-05  1.47341836E-04 -1.50184464E-05  2.07116662E-04 -1.04275245E-06
 -1.54844179E-05 -2.73930994E-05 -4.32106782E-05  3.99586008E-06 -6.32368961E-06
  2.85876233E-07  8.06817850E-05 -9.05984660E-05  2.88904232E-04  2.15457569E-04
  8.17751834E-05 -2.57461256E-05 -2.74212841E-04 -1.17945808E-05 -6.73658714E-04
 -5.73185124E-04  1.13630361E-04 -4.90817725E-07 -1.07021961E-05  5.24236434E-06