Ethanol first optimisation                                              
FOpt      RMP2-FC                                                     6-311G(d,p)         
Number of atoms                            I                9
Info1-9                                    I   N=           9
          12           7           0           0           0         100
           2           2           1
Charge                                     I                0
Multiplicity                               I                1
Number of electrons                        I               26
Number of alpha electrons                  I               13
Number of beta electrons                   I               13
Number of basis functions                  I               90
Number of independent functions            I               90
Number of point charges in /Mol/           I                0
Number of translation vectors              I                0
Atomic numbers                             I   N=           9
           6           6           8           1           1           1
           1           1           1
Nuclear charges                            R   N=           9
  6.00000000E+00  6.00000000E+00  8.00000000E+00  1.00000000E+00  1.00000000E+00
  1.00000000E+00  1.00000000E+00  1.00000000E+00  1.00000000E+00
Current cartesian coordinates              R   N=          27
 -2.28060441E+00 -4.52395961E-01 -4.36427914E-02  1.60772764E-01  1.06160043E+00
  8.82214427E-02  2.33257275E+00 -4.94359459E-01 -1.97308783E-01 -3.93334605E+00
  7.85913453E-01  5.81595293E-02 -2.39160413E+00 -1.79338288E+00  1.52890929E+00
 -2.35069538E+00 -1.52092783E+00 -1.80864513E+00  2.41447678E-01  2.13419343E+00
  1.86439248E+00  2.46367682E-01  2.41831937E+00 -1.46435763E+00  2.24623813E+00
 -1.72446672E+00  1.13253983E+00
Force Field                                I                0
Int Atom Types                             I   N=           9
           0           0           0           0           0           0
           0           0           0
MM charges                                 R   N=           9
  0.00000000E+00  0.00000000E+00  0.00000000E+00  0.00000000E+00  0.00000000E+00
  0.00000000E+00  0.00000000E+00  0.00000000E+00  0.00000000E+00
Integer atomic weights                     I   N=           9
          12          12          16           1           1           1
           1           1           1
Real atomic weights                        R   N=           9
  1.20000000E+01  1.20000000E+01  1.59949146E+01  1.00782504E+00  1.00782504E+00
  1.00782504E+00  1.00782504E+00  1.00782504E+00  1.00782504E+00
Atom fragment info                         I   N=           9
           0           0           0           0           0           0
           0           0           0
Atom residue num                           I   N=           9
           0           0           0           0           0           0
           0           0           0
Nuclear spins                              I   N=           9
           0           0           0           1           1           1
           1           1           1
Nuclear ZEff                               R   N=           9
 -3.60000000E+00 -3.60000000E+00 -5.60000000E+00 -1.00000000E+00 -1.00000000E+00
 -1.00000000E+00 -1.00000000E+00 -1.00000000E+00 -1.00000000E+00
Nuclear ZNuc                               R   N=           9
  6.00000000E+00  6.00000000E+00  8.00000000E+00  1.00000000E+00  1.00000000E+00
  1.00000000E+00  1.00000000E+00  1.00000000E+00  1.00000000E+00
Nuclear QMom                               R   N=           9
  0.00000000E+00  0.00000000E+00  0.00000000E+00  0.00000000E+00  0.00000000E+00
  0.00000000E+00  0.00000000E+00  0.00000000E+00  0.00000000E+00
Nuclear GFac                               R   N=           9
  0.00000000E+00  0.00000000E+00  0.00000000E+00  2.79284600E+00  2.79284600E+00
  2.79284600E+00  2.79284600E+00  2.79284600E+00  2.79284600E+00
MicOpt                                     I   N=           9
          -1          -1          -1          -1          -1          -1
          -1          -1          -1
Number of contracted shells                I               39
Number of primitive shells                 I               72
Pure/Cartesian d shells                    I                0
Pure/Cartesian f shells                    I                0
Highest angular momentum                   I                2
Largest degree of contraction              I                6
Shell types                                I   N=          39
           0          -1          -1          -1          -2           0
          -1          -1          -1          -2           0          -1
          -1          -1          -2           0           0           0
           1           0           0           0           1           0
           0           0           1           0           0           0
           1           0           0           0           1           0
           0           0           1
Number of primitives per shell             I   N=          39
           6           3           1           1           1           6
           3           1           1           1           6           3
           1           1           1           3           1           1
           1           3           1           1           1           3
           1           1           1           3           1           1
           1           3           1           1           1           3
           1           1           1
Shell to atom map                          I   N=          39
           1           1           1           1           1           2
           2           2           2           2           3           3
           3           3           3           4           4           4
           4           5           5           5           5           6
           6           6           6           7           7           7
           7           8           8           8           8           9
           9           9           9
Primitive exponents                        R   N=          72
  4.56324000E+03  6.82024000E+02  1.54973000E+02  4.44553000E+01  1.30290000E+01
  1.82773000E+00  2.09642000E+01  4.80331000E+00  1.45933000E+00  4.83456000E-01
  1.45585000E-01  6.26000000E-01  4.56324000E+03  6.82024000E+02  1.54973000E+02
  4.44553000E+01  1.30290000E+01  1.82773000E+00  2.09642000E+01  4.80331000E+00
  1.45933000E+00  4.83456000E-01  1.45585000E-01  6.26000000E-01  8.58850000E+03
  1.29723000E+03  2.99296000E+02  8.73771000E+01  2.56789000E+01  3.74004000E+00
  4.21175000E+01  9.62837000E+00  2.85332000E+00  9.05661000E-01  2.55611000E-01
  1.29200000E+00  3.38650000E+01  5.09479000E+00  1.15879000E+00  3.25840000E-01
  1.02741000E-01  7.50000000E-01  3.38650000E+01  5.09479000E+00  1.15879000E+00
  3.25840000E-01  1.02741000E-01  7.50000000E-01  3.38650000E+01  5.09479000E+00
  1.15879000E+00  3.25840000E-01  1.02741000E-01  7.50000000E-01  3.38650000E+01
  5.09479000E+00  1.15879000E+00  3.25840000E-01  1.02741000E-01  7.50000000E-01
  3.38650000E+01  5.09479000E+00  1.15879000E+00  3.25840000E-01  1.02741000E-01
  7.50000000E-01  3.38650000E+01  5.09479000E+00  1.15879000E+00  3.25840000E-01
  1.02741000E-01  7.50000000E-01
Contraction coefficients                   R   N=          72
  1.96665025E-03  1.52306019E-02  7.61269097E-02  2.60801033E-01  6.16462078E-01
  2.21006028E-01  1.14660081E-01  9.19999648E-01 -3.03068213E-03  1.00000000E+00
  1.00000000E+00  1.00000000E+00  1.96665025E-03  1.52306019E-02  7.61269097E-02
  2.60801033E-01  6.16462078E-01  2.21006028E-01  1.14660081E-01  9.19999648E-01
 -3.03068213E-03  1.00000000E+00  1.00000000E+00  1.00000000E+00  1.89515008E-03
  1.43859006E-02  7.07320031E-02  2.40001011E-01  5.94797026E-01  2.80802012E-01
  1.13889012E-01  9.20811101E-01 -3.27447036E-03  1.00000000E+00  1.00000000E+00
  1.00000000E+00  2.54938145E-02  1.90373109E-01  8.52161486E-01  1.00000000E+00
  1.00000000E+00  1.00000000E+00  2.54938145E-02  1.90373109E-01  8.52161486E-01
  1.00000000E+00  1.00000000E+00  1.00000000E+00  2.54938145E-02  1.90373109E-01
  8.52161486E-01  1.00000000E+00  1.00000000E+00  1.00000000E+00  2.54938145E-02
  1.90373109E-01  8.52161486E-01  1.00000000E+00  1.00000000E+00  1.00000000E+00
  2.54938145E-02  1.90373109E-01  8.52161486E-01  1.00000000E+00  1.00000000E+00
  1.00000000E+00  2.54938145E-02  1.90373109E-01  8.52161486E-01  1.00000000E+00
  1.00000000E+00  1.00000000E+00
P(S=P) Contraction coefficients            R   N=          72
  0.00000000E+00  0.00000000E+00  0.00000000E+00  0.00000000E+00  0.00000000E+00
  0.00000000E+00  4.02486927E-02  2.37593957E-01  8.15853851E-01  1.00000000E+00
  1.00000000E+00  0.00000000E+00  0.00000000E+00  0.00000000E+00  0.00000000E+00
  0.00000000E+00  0.00000000E+00  0.00000000E+00  4.02486927E-02  2.37593957E-01
  8.15853851E-01  1.00000000E+00  1.00000000E+00  0.00000000E+00  0.00000000E+00
  0.00000000E+00  0.00000000E+00  0.00000000E+00  0.00000000E+00  0.00000000E+00
  3.65113974E-02  2.37152983E-01  8.19701941E-01  1.00000000E+00  1.00000000E+00
  0.00000000E+00  0.00000000E+00  0.00000000E+00  0.00000000E+00  0.00000000E+00
  0.00000000E+00  0.00000000E+00  0.00000000E+00  0.00000000E+00  0.00000000E+00
  0.00000000E+00  0.00000000E+00  0.00000000E+00  0.00000000E+00  0.00000000E+00
  0.00000000E+00  0.00000000E+00  0.00000000E+00  0.00000000E+00  0.00000000E+00
  0.00000000E+00  0.00000000E+00  0.00000000E+00  0.00000000E+00  0.00000000E+00
  0.00000000E+00  0.00000000E+00  0.00000000E+00  0.00000000E+00  0.00000000E+00
  0.00000000E+00  0.00000000E+00  0.00000000E+00  0.00000000E+00  0.00000000E+00
  0.00000000E+00  0.00000000E+00
Coordinates of each shell                  R   N=         117
 -2.28060441E+00 -4.52395961E-01 -4.36427914E-02 -2.28060441E+00 -4.52395961E-01
 -4.36427914E-02 -2.28060441E+00 -4.52395961E-01 -4.36427914E-02 -2.28060441E+00
 -4.52395961E-01 -4.36427914E-02 -2.28060441E+00 -4.52395961E-01 -4.36427914E-02
  1.60772764E-01  1.06160043E+00  8.82214427E-02  1.60772764E-01  1.06160043E+00
  8.82214427E-02  1.60772764E-01  1.06160043E+00  8.82214427E-02  1.60772764E-01
  1.06160043E+00  8.82214427E-02  1.60772764E-01  1.06160043E+00  8.82214427E-02
  2.33257275E+00 -4.94359459E-01 -1.97308783E-01  2.33257275E+00 -4.94359459E-01
 -1.97308783E-01  2.33257275E+00 -4.94359459E-01 -1.97308783E-01  2.33257275E+00
 -4.94359459E-01 -1.97308783E-01  2.33257275E+00 -4.94359459E-01 -1.97308783E-01
 -3.93334605E+00  7.85913453E-01  5.81595293E-02 -3.93334605E+00  7.85913453E-01
  5.81595293E-02 -3.93334605E+00  7.85913453E-01  5.81595293E-02 -3.93334605E+00
  7.85913453E-01  5.81595293E-02 -2.39160413E+00 -1.79338288E+00  1.52890929E+00
 -2.39160413E+00 -1.79338288E+00  1.52890929E+00 -2.39160413E+00 -1.79338288E+00
  1.52890929E+00 -2.39160413E+00 -1.79338288E+00  1.52890929E+00 -2.35069538E+00
 -1.52092783E+00 -1.80864513E+00 -2.35069538E+00 -1.52092783E+00 -1.80864513E+00
 -2.35069538E+00 -1.52092783E+00 -1.80864513E+00 -2.35069538E+00 -1.52092783E+00
 -1.80864513E+00  2.41447678E-01  2.13419343E+00  1.86439248E+00  2.41447678E-01
  2.13419343E+00  1.86439248E+00  2.41447678E-01  2.13419343E+00  1.86439248E+00
  2.41447678E-01  2.13419343E+00  1.86439248E+00  2.46367682E-01  2.41831937E+00
 -1.46435763E+00  2.46367682E-01  2.41831937E+00 -1.46435763E+00  2.46367682E-01
  2.41831937E+00 -1.46435763E+00  2.46367682E-01  2.41831937E+00 -1.46435763E+00
  2.24623813E+00 -1.72446672E+00  1.13253983E+00  2.24623813E+00 -1.72446672E+00
  1.13253983E+00  2.24623813E+00 -1.72446672E+00  1.13253983E+00  2.24623813E+00
 -1.72446672E+00  1.13253983E+00
Constraint Structure                       R   N=          27
 -2.28479899E+00 -4.46883874E-01 -3.62981605E-02  1.70129623E-01  1.04481156E+00
  8.49298784E-02  2.30927942E+00 -4.95900570E-01 -2.07756310E-01 -3.90656471E+00
  8.01569743E-01  1.15311625E-01 -2.39679488E+00 -1.80876179E+00  1.49842196E+00
 -2.41103601E+00 -1.47146072E+00 -1.80655988E+00  2.74948671E-01  2.10288824E+00
  1.84591895E+00  2.48433396E-01  2.40114819E+00 -1.44347951E+00  2.40479439E+00
 -1.64574525E+00  1.16064703E+00
Num ILSW                                   I              100
ILSW                                       I   N=         100
           0           0           0           0           2           0
           0           0           0           0           0  1342177280
           0           0           0           0           2           0
           0           0           1           0           1           0
           1           0           0           0           0           0
           0           0      100000           0          -1           0
           0           0           0           0           0           0
           0           0           0           1           0           0
           0           0           1           0           0           0
           0           0           4          41           0           0
           0           0           0           0           0           0
           0           0           0           0           0           0
           0           0           0           0           0           0
           0           0           0           0           0           0
           0           0           0           0           0           0
           0           0           0           0           0           0
           0           0           0           0
Num RLSW                                   I               41
RLSW                                       R   N=          41
  1.00000000E+00  1.00000000E+00  1.00000000E+00  1.00000000E+00  1.00000000E+00
  0.00000000E+00  0.00000000E+00  1.00000000E+00  0.00000000E+00  0.00000000E+00
  0.00000000E+00  0.00000000E+00  1.00000000E+00  0.00000000E+00  0.00000000E+00
  0.00000000E+00  0.00000000E+00  1.00000000E+00  0.00000000E+00  0.00000000E+00
  0.00000000E+00  0.00000000E+00  1.00000000E+00  0.00000000E+00  0.00000000E+00
  0.00000000E+00  0.00000000E+00  1.00000000E+00  0.00000000E+00  0.00000000E+00
  0.00000000E+00  0.00000000E+00  1.00000000E+00  0.00000000E+00  0.00000000E+00
  0.00000000E+00  0.00000000E+00  0.00000000E+00  1.00000000E+00  1.00000000E+00
  0.00000000E+00
MxBond                                     I                4
NBond                                      I   N=           9
           4           4           2           1           1           1
           1           1           1
IBond                                      I   N=          36
           2           4           5           6           1           3
           7           8           2           9           0           0
           1           0           0           0           1           0
           0           0           1           0           0           0
           2           0           0           0           2           0
           0           0           3           0           0           0
RBond                                      R   N=          36
  1.00000000E+00  1.00000000E+00  1.00000000E+00  1.00000000E+00  1.00000000E+00
  1.00000000E+00  1.00000000E+00  1.00000000E+00  1.00000000E+00  1.00000000E+00
  0.00000000E+00  0.00000000E+00  1.00000000E+00  0.00000000E+00  0.00000000E+00
  0.00000000E+00  1.00000000E+00  0.00000000E+00  0.00000000E+00  0.00000000E+00
  1.00000000E+00  0.00000000E+00  0.00000000E+00  0.00000000E+00  1.00000000E+00
  0.00000000E+00  0.00000000E+00  0.00000000E+00  1.00000000E+00  0.00000000E+00
  0.00000000E+00  0.00000000E+00  1.00000000E+00  0.00000000E+00  0.00000000E+00
  0.00000000E+00
Virial Ratio                               R      2.000696933105367E+00
SCF Energy                                 R     -1.541243836518141E+02
MP2 Energy                                 R     -1.546371690160970E+02
Total Energy                               R     -1.546371690160970E+02
Post-SCF wavefunction norm                 R      1.072197867034167E+00
RMS Force                                  R      9.795952566986209E-05
RMS Density                                R      9.487186783013116E-09
External E-field                           R   N=          35
  0.00000000E+00  0.00000000E+00  0.00000000E+00  0.00000000E+00  0.00000000E+00
  0.00000000E+00  0.00000000E+00  0.00000000E+00  0.00000000E+00  0.00000000E+00
  0.00000000E+00  0.00000000E+00  0.00000000E+00  0.00000000E+00  0.00000000E+00
  0.00000000E+00  0.00000000E+00  0.00000000E+00  0.00000000E+00  0.00000000E+00
  0.00000000E+00  0.00000000E+00  0.00000000E+00  0.00000000E+00  0.00000000E+00
  0.00000000E+00  0.00000000E+00  0.00000000E+00  0.00000000E+00  0.00000000E+00
  0.00000000E+00  0.00000000E+00  0.00000000E+00  0.00000000E+00  0.00000000E+00
IOpCl                                      I                0
IROHF                                      I                0
Alpha Orbital Energies                     R   N=          90
 -2.05446303E+01 -1.12740015E+01 -1.12201850E+01 -1.35484574E+00 -1.01120643E+00
 -8.46186278E-01 -6.83573392E-01 -6.20162554E-01 -6.07066204E-01 -5.42202642E-01
 -5.25130005E-01 -4.81672234E-01 -4.40105090E-01  1.50835468E-01  1.84517682E-01
  1.98601401E-01  2.14452244E-01  2.35215643E-01  2.53555463E-01  3.56613024E-01
  3.88013398E-01  4.49923228E-01  4.55900378E-01  5.26647912E-01  5.42252300E-01
  5.88295780E-01  7.00554340E-01  7.39766183E-01  7.78560530E-01  7.99118250E-01
  8.00800956E-01  8.08998095E-01  8.22665813E-01  9.27290616E-01  9.98627614E-01
  1.07089454E+00  1.11302192E+00  1.12615951E+00  1.26532896E+00  1.36071354E+00
  1.50032944E+00  1.51569481E+00  1.61366040E+00  1.67819302E+00  1.71885909E+00
  1.72162124E+00  1.72959279E+00  1.76071367E+00  1.77904872E+00  1.81944599E+00
  1.87560233E+00  1.98133491E+00  2.00005743E+00  2.02279252E+00  2.12969873E+00
  2.22319468E+00  2.25016872E+00  2.30921213E+00  2.37082131E+00  2.42072053E+00
  2.56116036E+00  2.59620205E+00  2.64359002E+00  2.70306143E+00  2.75592441E+00
  2.78540774E+00  2.79872633E+00  2.86636509E+00  2.91537396E+00  2.92480644E+00
  2.99107653E+00  3.00946401E+00  3.10910301E+00  3.30949352E+00  3.49224517E+00
  3.53415661E+00  3.60288018E+00  3.74220980E+00  4.08700663E+00  4.19041772E+00
  4.20986284E+00  4.28389878E+00  4.37566112E+00  4.62246414E+00  5.44798614E+00
  5.82346273E+00  6.20146760E+00  2.49560271E+01  2.50821688E+01  5.15925359E+01
Alpha MO coefficients                      R   N=        8100
  1.29544366E-06  3.65262807E-07  1.38255885E-07 -2.16715629E-06 -1.21940146E-06
 -1.36470193E-06 -1.77003338E-05 -1.56116223E-06  2.20070289E-06 -2.59938448E-05
 -3.89695965E-05  6.10762091E-06  9.34072785E-05  4.21484493E-06  8.09232309E-06
  7.69338851E-06 -1.17104757E-05  1.13569640E-05 -2.82145075E-06 -2.88734337E-05
  2.25910360E-05 -1.18934772E-05 -1.40664407E-05  6.62262850E-05  2.01027534E-04
 -1.54497128E-04  1.15898694E-05  5.67189045E-04  2.38153331E-04 -1.06915189E-04
 -2.15431400E-04 -7.49978439E-05  5.02113918E-06  5.28934061E-06  2.56853226E-05
 -1.19356032E-04  5.51463122E-01  4.71673808E-01 -1.20759312E-03 -1.78526500E-04
  1.24285586E-03  5.57029937E-03  4.36621649E-04  8.63413514E-05 -4.79128950E-04
 -8.57751866E-04  1.03671174E-04 -1.82365784E-04  1.15635814E-04  4.38077420E-05
  4.15560365E-05  9.48614890E-05  5.18942223E-06  1.40425803E-04  5.30207773E-06
 -9.25775936E-06  2.60222492E-05  7.66937496E-06  1.71297367E-06 -7.79907668E-06
  6.11392825E-06 -3.19956882E-05 -5.87485547E-05 -5.76552991E-06 -1.22238061E-05
  4.46004244E-06  4.11066348E-06 -1.27325598E-05  3.31249753E-05 -1.12422498E-05
 -8.62025643E-06 -5.50777675E-06  5.61945234E-06 -2.06368898E-05  1.58072195E-05
 -3.24130396E-05 -3.22497237E-07 -2.24870958E-06  3.12630994E-05 -1.53904513E-04
 -5.07999280E-05 -9.46111724E-06  2.48548673E-06  1.42246597E-05  2.12318118E-04
  8.61616224E-05  8.02397133E-05 -4.01500127E-05  8.63244301E-05 -5.49595211E-05
  3.24178115E-03  2.63064013E-03  1.03410176E-04  7.80928571E-05  7.88181707E-06
  2.44249310E-04  2.67926099E-04  1.28315408E-04  9.78641863E-06  6.40833130E-04
  2.58659793E-04  1.84892014E-04 -5.78955652E-06 -6.52762952E-05  6.17984261E-06
  4.34024809E-06  7.66241948E-05  8.42249658E-05  5.63487821E-01  4.66560961E-01
  6.99753785E-04 -6.23380597E-04 -2.37296459E-05  3.98453380E-03 -4.95534195E-04
  4.80730080E-04  1.86300815E-05 -1.90128331E-03  2.64781597E-04  6.63105481E-05
  5.95766770E-05  1.69716429E-04  2.35843576E-05 -5.74885719E-05 -1.02065914E-04
  1.72104032E-04 -6.70119847E-05 -1.17353719E-04 -8.30186886E-05  5.47908261E-05
  1.49387588E-05  2.37984843E-04 -4.15202405E-04  3.14700445E-04  4.81615961E-05
  5.07768258E-04 -2.14941955E-04  1.10875120E-04  1.30632745E-05 -1.09378652E-04
 -4.24387139E-05  4.12901276E-05  7.71492743E-05 -1.75457889E-04  3.17460854E-06
 -1.28221639E-05  3.92343233E-07  2.34144319E-05  4.58667408E-06  2.45518699E-06
 -6.25988301E-07 -6.47917532E-06  2.22025726E-05  5.29783890E-06  1.18412643E-05
 -9.69281070E-06 -2.83977305E-07 -1.67615755E-05  1.10516584E-05  7.12682007E-06
  8.57177132E-06  1.01377311E-05  3.21593493E-04  2.23982646E-04  2.40318701E-04
  1.55996174E-05 -4.47544271E-05 -1.22799033E-05  3.19297834E-04  2.13137488E-04
  2.81397894E-04  1.31210030E-05 -3.50753622E-05 -1.02877229E-05 -2.23858378E-05
  3.73178781E-05 -4.97443631E-06 -3.12310657E-06  3.67474066E-05 -2.52850911E-05
  5.63333990E-01  4.66537650E-01 -8.96816214E-05 -2.21753827E-05  7.55452407E-05
  4.42634129E-03  2.76130165E-05 -1.26794452E-05 -6.24287821E-05 -1.69205706E-03
 -2.14611359E-04 -9.02302313E-05  1.10055294E-05  2.55838802E-05 -5.05108432E-06
  1.85375207E-05 -1.08622195E-05 -3.98799799E-05 -3.34070794E-03 -2.82354731E-03
 -1.18237656E-04 -8.03399779E-05 -7.53014666E-06  2.21832267E-04 -2.45964240E-04
 -1.38672800E-04 -9.87724276E-06  5.49040077E-04 -2.30157676E-04 -1.39673930E-04
 -1.62798818E-05 -5.54248283E-05  4.54741237E-06 -1.23338767E-06  4.82316968E-05
  1.00430135E-04  2.61169740E-06  5.50266669E-06  7.97175996E-06 -4.59018736E-07
  3.35442557E-07 -2.85685695E-05  2.20959948E-05  1.00998043E-05  1.56109462E-06
  3.33074820E-05 -2.01156579E-05 -5.88493836E-06  2.16068402E-05 -2.53799475E-06
 -5.18412176E-07 -2.40137277E-06  2.52185342E-06 -3.01969299E-06  3.49741235E-04
  2.03222422E-04  1.97894553E-04  3.59699626E-05 -5.15892276E-06  1.03914943E-06
  3.48611339E-04  2.36104248E-04  2.09321930E-04  1.97025548E-05  3.16157561E-05
 -2.53081846E-05  3.43602875E-04  1.92170661E-04  2.42065030E-04  1.12301943E-05
  1.24263892E-05  1.17062700E-05 -3.99515135E-06 -3.17354535E-05  1.28909258E-05
 -6.14749222E-06 -6.03732966E-06 -3.11426529E-06 -4.52578250E-06 -3.25552549E-05
  1.80876160E-05 -7.93331521E-06 -7.65235567E-06  3.13039297E-07 -6.97268444E-06
 -3.25987700E-05  1.32911837E-05 -3.99805899E-06 -6.64771937E-06 -1.28685106E-06
 -8.38799665E-03 -1.38228432E-02  7.52308950E-03  1.62501995E-03  2.02408932E-04
  3.40691805E-02  2.13009143E-02  7.51514754E-03  9.26982524E-04  2.54657854E-02
  8.13602839E-03  3.61410660E-03 -2.24143074E-03 -2.39418191E-03  4.21982918E-04
 -1.12576399E-04  3.50846284E-03  5.02621695E-03 -3.79016380E-02 -6.22556576E-02
  3.04833094E-02 -2.40893713E-02 -2.75134503E-03  1.58979306E-01  5.60605117E-02
 -5.33286091E-02 -5.28904302E-03 -2.03421272E-03 -3.98951080E-03  3.92172033E-03
  6.71993827E-03 -1.45039518E-02 -2.38802337E-03  1.61432267E-03  6.37425122E-03
 -2.14928734E-02 -1.08914016E-01 -1.81929756E-01 -2.58270285E-02 -1.77410881E-03
  2.32527191E-02  5.16004261E-01 -4.64649620E-02 -1.51360299E-03  4.01884703E-02
  3.94840274E-01 -3.07106098E-02  9.87455385E-03  1.52336078E-02 -9.87915509E-04
 -3.25554402E-03 -5.12790921E-03  4.02337403E-04 -5.09037821E-03  2.79442702E-03
  4.91909431E-03 -3.06667006E-03  1.67957213E-03 -1.44853183E-03  4.93673981E-05
  4.21683713E-03  6.98120566E-03  1.81693945E-03  9.11834147E-04  1.30548084E-03
 -1.73698725E-03  4.26881873E-03  5.94840853E-03 -3.71586164E-04  8.75720943E-04
  9.60275860E-04  2.03234580E-03  1.51300854E-02  3.04486977E-02 -3.01987226E-03
  6.80312229E-04 -5.12093435E-03 -7.71679463E-03  1.53096393E-02  3.38327114E-02
 -3.27759961E-04  1.64845998E-04 -6.33100379E-03  6.65508768E-03  8.77252698E-02
  7.36814299E-02 -1.75946895E-03 -1.23162277E-03  1.87153285E-02 -1.80007522E-02
 -8.37396391E-02 -1.38087575E-01  1.67617106E-02  1.28760559E-02  1.39740184E-03
  3.49697967E-01  3.86358255E-02  2.92489544E-02  3.08986419E-03  1.91524633E-01
  1.72347505E-03  4.47559601E-03 -1.07887832E-03 -4.87151405E-03  7.18916221E-04
  3.10754387E-04  2.65167347E-03  7.76779978E-03 -6.34648838E-02 -1.05370636E-01
 -4.44267467E-02 -3.04077247E-03 -1.20999424E-03  2.75179313E-01 -7.43944182E-02
 -2.02422873E-02 -3.34112423E-03  1.63707489E-01 -2.60013358E-02 -5.23877977E-03
  6.26668095E-03 -4.28290184E-03  3.56087709E-04  1.30295849E-04  3.73632374E-03
  1.36942958E-02  2.89205334E-02  4.85718308E-02 -2.86654659E-02  2.56471933E-02
 -1.14264653E-02 -1.40521503E-01 -4.59189194E-02  4.17471325E-02 -1.91185931E-02
 -1.31801872E-01 -2.29988066E-02  1.81420987E-02 -5.90152613E-03 -3.71411725E-03
 -1.04388534E-03  3.82253991E-03  4.32538141E-03 -3.31385500E-03  6.10034835E-02
  8.17705959E-02 -5.70995236E-04  1.33330905E-02 -8.94903224E-03 -5.92179791E-04
  5.89832591E-02  8.11686579E-02  9.28101358E-04  1.75428523E-03  1.06815075E-02
 -1.16476551E-02  5.86778556E-02  7.91472821E-02 -3.31445699E-03  9.11049252E-04
  8.56508162E-03  1.32625867E-02  4.58302269E-02  5.88624831E-02 -4.84643535E-03
 -2.11311609E-03 -6.06976329E-03 -1.07562834E-02  4.64469257E-02  6.44836720E-02
 -1.30388835E-03 -2.46564736E-03 -8.36956983E-03  9.73096263E-03 -4.06659712E-02
 -4.55694933E-02 -6.71262292E-03 -2.60496670E-03 -6.58252273E-03  7.72348163E-03
  5.66483548E-02  9.37208422E-02  3.82865814E-02  3.13182417E-02  2.28634881E-04
 -2.36023478E-01  6.54962305E-02  5.23783186E-02  5.27483189E-04 -1.90612027E-01
  1.55092494E-02  1.77991926E-02 -2.72574998E-03 -7.41808077E-03  5.50896587E-04
  7.24572339E-04  4.69682288E-03  1.24247359E-02 -6.75456958E-02 -1.12900309E-01
  3.32306053E-02  4.63066505E-02 -4.42393532E-03  2.98601231E-01  6.89253338E-02
  6.37327016E-02 -9.20855188E-03  2.08432841E-01  4.33878333E-03  2.70805719E-02
  2.10358753E-03  6.65939356E-03 -3.70875289E-03 -4.43117854E-04 -8.45163225E-04
 -1.24369106E-02  1.59243835E-02  2.67228591E-02 -4.23124901E-02  8.26951401E-02
 -2.35993853E-02 -7.63952647E-02 -6.74774027E-02  1.31481430E-01 -3.72373672E-02
 -7.59019323E-02 -4.01694939E-02  7.45227815E-02 -1.43071102E-02 -5.87455152E-03
 -1.15191780E-03  8.07276064E-03  3.54699323E-03 -8.88093390E-03 -5.80719179E-02
 -8.05936580E-02 -1.18299163E-02 -7.71294212E-03  8.19708642E-03  6.57700482E-04
 -6.58045629E-02 -8.99936638E-02 -1.11952091E-02  3.73697622E-04 -7.19306085E-03
  1.00080280E-02 -6.20836861E-02 -8.29968670E-02 -1.15902325E-02  1.56139637E-03
 -5.16959309E-03 -1.06060049E-02  7.28195618E-02  1.04373573E-01  9.36845105E-03
  3.04285411E-04 -6.19376641E-03 -1.46752998E-02  8.12810799E-02  1.17124495E-01
  1.08518413E-02 -4.66175283E-04 -9.09402426E-03  1.40329316E-02 -6.95162811E-02
 -9.04133878E-02 -1.80329371E-02 -2.58499579E-03 -7.78936971E-03  1.32163259E-02
  8.72566425E-03  1.45834504E-02  2.12184608E-02  2.90188001E-02  5.18689969E-02
 -3.57513796E-02  3.24583187E-02  4.74917160E-02  8.41434322E-02 -5.91999095E-02
  9.18556806E-03  2.01444788E-02  3.41019873E-02 -5.76953461E-03  6.13321326E-03
 -2.71552904E-03  2.94061112E-05  4.56821344E-03 -1.55764556E-02 -2.55163610E-02
 -4.89067893E-02  3.10432124E-02  1.06839304E-01  6.30845355E-02 -8.44330606E-02
  5.17823996E-02  1.79441111E-01  8.61180961E-02 -4.43986372E-02  7.89116848E-03
  1.12198963E-01  1.22499974E-02  1.23553080E-02  4.01149043E-03 -9.00740157E-03
  1.24440918E-02  2.05966296E-02  3.50477432E-02  2.08044784E-02 -9.15154314E-02
  1.40797632E-01 -1.06981436E-01  3.56017250E-02 -1.41700568E-01  2.16979053E-01
 -1.59341517E-01  1.98453413E-02 -8.47198302E-02  1.50952155E-01  1.07277252E-02
 -8.13331737E-03 -7.79779840E-03 -4.62961638E-03  6.43142600E-03 -6.58070955E-03
 -8.94814869E-03 -3.14058840E-03 -2.08587470E-04  2.22769338E-03  3.17256441E-03
  7.66277584E-03  1.59962483E-02  8.76395096E-03  2.05268845E-03  2.85355753E-03
  1.42393212E-03 -5.66110976E-02 -8.23244329E-02 -2.51465348E-02  7.42510212E-04
 -3.92961197E-03 -6.29638444E-03  9.86465506E-02  1.31869123E-01  3.50246796E-02
 -3.55561017E-03 -5.54580134E-03 -8.00905345E-03 -3.03358486E-02 -3.31416319E-02
 -8.90371261E-03  1.60739289E-04  3.16789430E-03  1.04256030E-03  1.14223902E-01
  1.78384723E-01  3.12004674E-02 -2.79706128E-04  2.07240067E-02 -1.41929141E-02
 -1.79390397E-03 -2.93525599E-03 -7.66402202E-02  7.40922867E-02 -3.50986849E-02
  5.83307113E-03 -1.23310444E-01  1.16965162E-01 -5.66751608E-02  2.07510948E-02
 -7.62399806E-02  7.98184430E-02 -2.30396484E-02 -8.33327236E-03 -3.60947587E-03
  6.22540207E-03 -2.36068206E-03 -1.21194368E-02  4.67631070E-03  8.56600439E-03
 -3.68147632E-02  1.17680707E-01 -3.95963045E-02 -2.59958057E-02 -7.24806714E-02
  2.05221911E-01 -6.43078774E-02 -6.41794149E-03 -1.43400123E-02  1.13290061E-01
 -6.26930006E-02  2.14595622E-02  3.08005634E-03 -1.02012221E-02  1.06026432E-03
  1.72890132E-02 -1.56646812E-02 -2.64941390E-02  1.46995372E-01 -3.64366391E-02
 -1.65189259E-02  7.88038913E-02  2.27776891E-01 -5.74623595E-02 -2.45529466E-02
  1.14139384E-01  1.83571427E-01 -3.85330732E-02 -2.02292649E-02  5.83357860E-03
  8.90168850E-03 -5.04123450E-03 -1.16122926E-02  3.84390888E-03  9.04665989E-02
  1.32197086E-01  4.29720604E-02  8.38127496E-03 -4.46999283E-03 -2.94346410E-03
 -5.81281636E-02 -8.81650010E-02 -3.86984172E-02 -5.17112372E-03 -3.02624469E-03
  5.75544665E-03 -2.43318683E-03 -5.88684720E-04  5.11609627E-03 -4.11639891E-03